   * xtb version 6.4.0 (d4b70c2) compiled by 'ehlert@majestix' on 2021-02-01
          program call               : xtb co2.xyz --ohess
          number of atoms            :                     3
          number of electrons        :                    16
          charge                     :                     0
          spin                       :                   0.0

   ID    Z sym.   atoms
    1    6 C      1
    2    8 O      2, 3

          :  Hamiltonian                  GFN2-xTB          :
 * total energy  :   -10.3072657 Eh     change       -0.2716050E-11 Eh
 * total energy  :   -10.3084463 Eh     change       -0.1180610E-02 Eh
 * total energy  :   -10.3084523 Eh     change       -0.5987560E-05 Eh
 * total energy  :   -10.3084523 Eh     change       -0.1642669E-07 Eh
   *** GEOMETRY OPTIMIZATION CONVERGED AFTER 4 ITERATIONS ***

 final structure:
================
3
 xtb: 6.4.0 (d4b70c2)
C        -0.00000000000000   -0.00000000000000    0.00000000000000
O         0.00000000000000    0.00000000000000    1.14361667467627
O         0.00000000000000    0.00000000000000   -1.14361667467627

          :  Hamiltonian                  GFN2-xTB          :
         :: gradient norm              0.000114163424 Eh/a0 ::
         :: HOMO-LUMO gap              8.449486619652 eV    ::
         :: SCC energy               -10.430637984160 Eh    ::
         :: -> dispersion             -0.000687153926 Eh    ::
         :: repulsion energy           0.122185701883 Eh    ::

    * Orbital Energies and Occupations

         #    Occupation            Energy/Eh            Energy/eV
      -------------------------------------------------------------
         1        2.0000           -0.8108224             -22.0636
         2        2.0000           -0.7966891             -21.6790
         3        2.0000           -0.6648070             -18.0903
         4        2.0000           -0.6634796             -18.0542
         5        2.0000           -0.6634796             -18.0542
         6        2.0000           -0.5998302             -16.3222
         7        2.0000           -0.5344404             -14.5429
         8        2.0000           -0.5344404             -14.5429 (HOMO)
         9                         -0.2239275              -6.0934 (LUMO)
        10                         -0.2239275              -6.0934
        11                          0.3100117               8.4358
        12                          1.3645057              37.1301
      -------------------------------------------------------------
                  HL-Gap            0.3105129 Eh            8.4495 eV

     #   Z          covCN         q      C6AA      α(0)
     1   6 C        1.711     0.464    21.600     7.524
     2   8 O        0.856    -0.232    18.600     5.782
     3   8 O        0.856    -0.232    18.600     5.782

Wiberg/Mayer (AO) data.
largest (>0.10) Wiberg bond orders for each atom

     #   Z sym  total        # sym  WBO       # sym  WBO       # sym  WBO
 ---------------------------------------------------------------------------
     1   6 C    3.936 --     3 O    1.968     2 O    1.968
     2   8 O    2.370 --     1 C    1.968     3 O    0.402
     3   8 O    2.370 --     1 C    1.968     2 O    0.402
 ---------------------------------------------------------------------------

molecular dipole:
                 x           y           z       tot (Debye)
 q only:       -0.000      -0.000      -0.000
   full:       -0.000       0.000      -0.000       0.000

   temp. (K)  partition function   enthalpy   heat capacity  entropy
                                   cal/mol     cal/K/mol   cal/K/mol   J/K/mol
 298.15  VIB   1.12                  204.866      2.161      0.915
         ROT   257.                  592.502      1.987     13.016
         INT   288.                  797.368      4.148     13.931
         TR   0.282E+27             1481.254      4.968     37.255
         TOT                        2278.6215     9.1166    51.1861   214.1625

       T/K    H(0)-H(T)+PV         H(T)/Eh          T*S/Eh         G(T)/Eh
   ------------------------------------------------------------------------
    298.15    0.363121E-02    0.155205E-01    0.243201E-01   -0.879968E-02
   ------------------------------------------------------------------------

         :::::::::::::::::::::::::::::::::::::::::::::::::::::
         ::                  THERMODYNAMIC                  ::
         :::::::::::::::::::::::::::::::::::::::::::::::::::::
         :: total free energy         -10.317251967254 Eh   ::
         ::.................................................::
         :: total energy              -10.308452283873 Eh   ::
         :: zero point energy           0.011889249665 Eh   ::
         :: G(RRHO) w/o ZPVE           -0.020688933046 Eh   ::
         :: G(RRHO) contrib.           -0.008799683381 Eh   ::
         :::::::::::::::::::::::::::::::::::::::::::::::::::::

           -------------------------------------------------
          | TOTAL ENERGY              -10.308452283873 Eh   |
          | TOTAL ENTHALPY            -10.292931819747 Eh   |
          | TOTAL FREE ENERGY         -10.317251967254 Eh   |
          | GRADIENT NORM               0.000114163251 Eh/α |
          | HOMO-LUMO GAP               8.449486626979 eV   |
           -------------------------------------------------

 * finished run on 2021/05/02 at 11:51:46.537
