 Q-Chem 5.1, Q-Chem, Inc., Pleasanton, CA (2018)
 Q-Chem 5.1.0 for Intel X86 EM64T Linux

User input:
--------------------------------------------------------------
$comment
water freq
$end

$molecule
0 1
O     -0.000001   -0.000001   -0.408455
H      0.758758   -0.000004    0.204225
H     -0.758756    0.000004    0.204230
$end

$rem
MEM_TOTAL  100000
BASIS cc-pVDZ
METHOD b3lyp
xc_grid 75000302
UNRESTRICTED FALSE
JOBTYPE   opt
THRESH 14
SCF_CONVERGENCE 10
$end

--------------------------------------------------------------

   11     -76.4205480159      9.12e-12  Convergence criterion met
 Total energy in the final basis set =      -76.4205480159
    9     -76.4206244944      5.30e-11  Convergence criterion met
 Total energy in the final basis set =      -76.4206244944
    9     -76.4206266119      5.96e-12  Convergence criterion met
 Total energy in the final basis set =      -76.4206266119
 Final energy is   -76.4206266119070
 **  OPTIMIZATION CONVERGED  **
 Total job time:  29.33s(wall), 4.75s(cpu)
        *  Thank you very much for using Q-Chem.  Have a nice day.  *
 Q-Chem 5.1, Q-Chem, Inc., Pleasanton, CA (2018)
 Q-Chem 5.1.0 for Intel X86 EM64T Linux

User input:
--------------------------------------------------------------
$molecule
READ
$end

$rem
MEM_TOTAL  100000
BASIS cc-pVDZ
METHOD b3lyp
xc_grid 75000302
UNRESTRICTED FALSE
JOBTYPE   freq
THRESH 14
SCF_CONVERGENCE 10
$end

--------------------------------------------------------------

             Standard Nuclear Orientation (Angstroms)
    I     Atom           X                Y                Z
 ----------------------------------------------------------------
    1      O       0.0000000000     0.0000000000     0.1209221476
    2      H      -0.7567668765    -0.0000000000    -0.4836885903
    3      H       0.7567668765     0.0000000000    -0.4836885903
 ----------------------------------------------------------------

   11     -76.4206266119      8.96e-12  Convergence criterion met
 Total energy in the final basis set =      -76.4206266119

             Orbital Energies (a.u.) and Symmetries
 --------------------------------------------------------------

 Alpha MOs, Restricted
 -- Occupied --
-19.125  -0.992  -0.507  -0.367  -0.288
  1 A1    2 A1    1 B1    3 A1    1 B2

 Beta MOs, Restricted
 -- Occupied --
-19.125  -0.992  -0.507  -0.367  -0.288
  1 A1    2 A1    1 B1    3 A1    1 B2

          Ground-State Mulliken Net Atomic Charges

     Atom                 Charge (a.u.)
  ----------------------------------------
      1 O                    -0.262675
      2 H                     0.131337
      3 H                     0.131337
  ----------------------------------------
  Sum of atomic charges =    -0.000000

                    Cartesian Multipole Moments
 -----------------------------------------------------------------
    Charge (ESU x 10^10)
                -0.0000
    Dipole Moment (Debye)
         X      -0.0000      Y       0.0000      Z      -1.9377
       Tot       1.9377
    Quadrupole Moments (Debye-Ang)
        XX      -4.3332     XY       0.0000     YY      -7.0000
        XZ       0.0000     YZ       0.0000     ZZ      -5.8775

 Frequency:      1658.30                3750.54                3852.11
 Force Cnst:      1.7532                 8.6669                 9.4432
 Red. Mass:       1.0821                 1.0458                 1.0801
 IR Intens:       55.795                  2.911                 20.062

 STANDARD THERMODYNAMIC QUANTITIES AT   298.15 K  AND     1.00 ATM

   This Molecule has  0 Imaginary Frequencies
   Zero point vibrational energy:       13.239 kcal/mol

   Atom    1 Element O  Has Mass   15.99491
   Atom    2 Element H  Has Mass    1.00783
   Atom    3 Element H  Has Mass    1.00783
   Molecular Mass:    18.010570 amu
   Principal axes and moments of inertia in amu*Bohr^2:
                             1           2           3
    Eigenvalues --        2.33680     4.12230     6.45909
          X               1.00000     0.00000    -0.00000
          Y               0.00000     0.00000     1.00000
          Z               0.00000     1.00000     0.00000
   Rotational Symmetry Number is   2
   The Molecule is an Asymmetric Top
   Translational Enthalpy:        0.889 kcal/mol
   Rotational Enthalpy:           0.889 kcal/mol
   Vibrational Enthalpy:         13.241 kcal/mol
   gas constant (RT):             0.592 kcal/mol
   Translational Entropy:        34.608  cal/mol.K
   Rotational Entropy:           10.530  cal/mol.K
   Vibrational Entropy:           0.006  cal/mol.K

   Total Enthalpy:               15.611 kcal/mol
   Total Entropy:                45.144  cal/mol.K

 Total job time:  12.98s(wall), 12.83s(cpu)
        *  Thank you very much for using Q-Chem.  Have a nice day.  *
