 Q-Chem 5.1, Q-Chem, Inc., Pleasanton, CA (2018)
 Q-Chem 5.1.0 for Intel X86 EM64T Linux

User input:
--------------------------------------------------------------
$comment
co2 freq
$end

$molecule
0 1
C     -0.000000    0.000000   -0.000000
O      0.000004    0.000002    1.174865
O     -0.000004   -0.000002   -1.174865
$end

$rem
MEM_TOTAL  100000
BASIS cc-pVDZ
METHOD MP2
xc_grid 75000302
UNRESTRICTED FALSE
JOBTYPE   freq
THRESH 14
SCF_CONVERGENCE 10
$end

--------------------------------------------------------------

   13    -187.6475112328      1.24e-11  Convergence criterion met
 Total energy in the final basis set =     -187.6475112328
        MP2         total energy =                  -188.13353380 au

                    Orbital Energies (a.u.)
 --------------------------------------------------------------

 Alpha MOs
 -- Occupied --
-20.655 -20.655 -11.476  -1.522  -1.468  -0.796  -0.734  -0.703
 -0.703  -0.536  -0.536

          Ground-State Mulliken Net Atomic Charges

     Atom                 Charge (a.u.)
  ----------------------------------------
      1 C                     0.281218
      2 O                    -0.140609
      3 O                    -0.140609
  ----------------------------------------
  Sum of atomic charges =    -0.000000

                    Cartesian Multipole Moments
 -----------------------------------------------------------------
    Charge (ESU x 10^10)
                -0.0000
    Dipole Moment (Debye)
         X      -0.0000      Y      -0.0000      Z      -0.0000
       Tot       0.0000
    Quadrupole Moments (Debye-Ang)
        XX     -14.6919     XY      -0.0000     YY     -14.6919
        XZ       0.0000     YZ       0.0000     ZZ     -18.7893

             Standard Nuclear Orientation (Angstroms)
    I     Atom           X                Y                Z
 ----------------------------------------------------------------
    1      C       0.0000000000     0.0000000000     0.0000000000
    2      O      -0.0000000000     0.0000000000     1.1748650000
    3      O       0.0000000000    -0.0000000000    -1.1748650000
 ----------------------------------------------------------------

 Frequency:       641.57                 641.57                1338.61
 Force Cnst:      3.1230                 3.1230                16.8865
 Red. Mass:      12.8774                12.8774                15.9949
 IR Intens:       23.208                 23.208                  0.000
 Frequency:      2460.39
 Force Cnst:     45.9289
 Red. Mass:      12.8774
 IR Intens:      485.662

 STANDARD THERMODYNAMIC QUANTITIES AT   298.15 K  AND     1.00 ATM

   This Molecule has  0 Imaginary Frequencies
   Zero point vibrational energy:        7.265 kcal/mol

   Atom    1 Element C  Has Mass   12.00000
   Atom    2 Element O  Has Mass   15.99491
   Atom    3 Element O  Has Mass   15.99491
   Molecular Mass:    43.989820 amu
   Principal axes and moments of inertia in amu*Bohr^2:
                             1           2           3
    Eigenvalues --       -0.00000   157.68321   157.68321
          X              -0.00000     0.97619     0.21693
          Y               0.00000    -0.21693     0.97619
          Z               1.00000     0.00000     0.00000
   Rotational Symmetry Number is   2
   The Molecule is a Symmetric Top
   Translational Enthalpy:        0.889 kcal/mol
   Rotational Enthalpy:           0.592 kcal/mol
   Vibrational Enthalpy:          7.445 kcal/mol
   gas constant (RT):             0.592 kcal/mol
   Translational Entropy:        37.270  cal/mol.K
   Rotational Entropy:           13.123  cal/mol.K
   Vibrational Entropy:           0.790  cal/mol.K

   Total Enthalpy:                9.519 kcal/mol
   Total Entropy:                51.183  cal/mol.K

 Total job time:  36.28s(wall), 33.98s(cpu)
        *  Thank you very much for using Q-Chem.  Have a nice day.  *
