                         Program Version 4.1.1  - RELEASE  -
|  1> ! BP def2-SVP RI def2/J  TightSCF Grid5 NoFinalGrid
|  2> ! Opt
|  3> ! AnFreq
|  4>
|  5> %freq Hess2ElFlags 1,2,2,1
|  6>       end
|  7>
|  8>
|  9> %pal
| 10> nprocs 36    # parallel execution
| 11> end
| 12>
| 13> % maxcore 3000
| 14>
| 15> * xyz 0 1
| 16> 8               -0.000001   -0.000001   -0.379301
| 17> 1                0.772209   -0.000004    0.189648
| 18> 1               -0.772207    0.000004    0.189653
| 19> *
| 20>
| 21>
| 22>                          ****END OF INPUT****
 Total Charge           Charge          ....    0
 Multiplicity           Mult            ....    1
 Number of Electrons    NEL             ....   10
FINAL SINGLE POINT ENERGY       -76.359862171369
FINAL SINGLE POINT ENERGY       -76.360556877290
FINAL SINGLE POINT ENERGY       -76.360758332298
FINAL SINGLE POINT ENERGY       -76.360771075660
FINAL SINGLE POINT ENERGY       -76.360771402694
                    ***********************HURRAY********************

CARTESIAN COORDINATES (ANGSTROEM)
---------------------------------
  O     -0.000001   -0.000001   -0.408455
  H      0.758758   -0.000004    0.204225
  H     -0.758756    0.000004    0.204230

 Multiplicity           Mult            ....    1
 Number of Electrons    NEL             ....   10
 Basis Dimension        Dim             ....   24

ORBITAL ENERGIES
----------------

  NO   OCC          E(Eh)            E(eV)
   0   2.0000     -18.761586      -510.5287
   1   2.0000      -0.890675       -24.2365
   2   2.0000      -0.455087       -12.3836
   3   2.0000      -0.313324        -8.5260
   4   2.0000      -0.232867        -6.3366
   5   0.0000       0.029429         0.8008
   6   0.0000       0.105712         2.8766
   7   0.0000       0.507393        13.8069
   8   0.0000       0.571161        15.5421
   9   0.0000       0.862192        23.4614

MULLIKEN ATOMIC CHARGES
-----------------------
   0 O :   -0.298606
   1 H :    0.149303
   2 H :    0.149303
Sum of atomic charges:   -0.0000000

LOEWDIN ATOMIC CHARGES
----------------------
   0 O :   -0.155060
   1 H :    0.077530
   2 H :    0.077530

  Mayer bond orders larger than 0.1
B(  0-O ,  1-H ) :   1.0079 B(  0-O ,  2-H ) :   1.0079

FINAL SINGLE POINT ENERGY       -76.360771406680

DIPOLE MOMENT
-------------
                                X             Y             Z
Electronic contribution:     -0.00000      -0.00000      -0.23897
Nuclear contribution   :      0.00000       0.00000       1.01995
                        -----------------------------------------
Total Dipole Moment    :      0.00000       0.00000       0.78097
                        -----------------------------------------
Magnitude (a.u.)       :      0.78097
Magnitude (Debye)      :      1.98508

VIBRATIONAL FREQUENCIES
-----------------------

Scaling factor for frequencies =  1.000000000  (already applied!)

   0:         0.00 cm**-1
   1:         0.00 cm**-1
   2:         0.00 cm**-1
   3:         0.00 cm**-1
   4:         0.00 cm**-1
   5:         0.00 cm**-1
   6:      1607.87 cm**-1
   7:      3681.08 cm**-1
   8:      3779.80 cm**-1

IR SPECTRUM
-----------

 Mode    freq (cm**-1)   T**2         TX         TY         TZ
-------------------------------------------------------------------
   6:      1607.87   48.150078  ( -0.000023  -0.000012  -6.939026)
   7:      3681.08    2.544972  (  0.000004   0.000003   1.595297)
   8:      3779.80   20.705013  (  4.550276  -0.000024  -0.000013)

--------------------------
THERMOCHEMISTRY AT 298.15K
--------------------------

Temperature         ... 298.15 K
Pressure            ... 1.00 atm
Total Mass          ... 18.02 AMU

Throughout the following assumptions are being made:
  (1) The electronic state is orbitally nondegenerate
  (2) There are no thermally accessible electronically excited states
  (3) Hindered rotations indicated by low frequency modes are not
      treated as such but are treated as vibrations and this may
      cause some error
  (4) All equations used are the standard statistical mechanics
      equations for an ideal gas
  (5) All vibrations are strictly harmonic

freq.    1607.87  E(vib)   ...       0.00
freq.    3681.08  E(vib)   ...       0.00
freq.    3779.80  E(vib)   ...       0.00

------------
INNER ENERGY
------------

The inner energy is: U= E(el) + E(ZPE) + E(vib) + E(rot) + E(trans)
    E(el)   - is the total energy from the electronic structure calculation
              = E(kin-el) + E(nuc-el) + E(el-el) + E(nuc-nuc)
    E(ZPE)  - the the zero temperature vibrational energy from the frequency calculation
    E(vib)  - the the finite temperature correction to E(ZPE) due to population
              of excited vibrational states
    E(rot)  - is the rotational thermal energy
    E(trans)- is the translational thermal energy

Summary of contributions to the inner energy U:
Electronic energy                ...    -76.36077141 Eh
Zero point energy                ...      0.02066013 Eh      12.96 kcal/mol
Thermal vibrational correction   ...      0.00000313 Eh       0.00 kcal/mol
Thermal rotational correction    ...      0.00141627 Eh       0.89 kcal/mol
Thermal translational correction ...      0.00141627 Eh       0.89 kcal/mol
-----------------------------------------------------------------------
Total thermal energy                    -76.33727561 Eh

Summary of corrections to the electronic energy:
(perhaps to be used in another calculation)
Total thermal correction                  0.00283567 Eh       1.78 kcal/mol
Non-thermal (ZPE) correction              0.02066013 Eh      12.96 kcal/mol
-----------------------------------------------------------------------
Total correction                          0.02349580 Eh      14.74 kcal/mol

--------
ENTHALPY
--------

The enthalpy is H = U + kB*T
                kB is Boltzmann's constant
Total free energy                 ...    -76.33727561 Eh
Thermal Enthalpy correction       ...      0.00094421 Eh       0.59 kcal/mol
-----------------------------------------------------------------------
Total Enthalpy                    ...    -76.33633140 Eh

Note: Rotational entropy computed according to Herzberg
Infrared and Raman Spectra, Chapter V,1, Van Nostrand Reinhold, 1945
Point Group:  C2v, Symmetry Number:   2
Rotational constants in cm-1:    25.082839    14.524486     9.198181

Vibrational entropy computed according to the QRRHO of S. Grimme
Chem.Eur.J. 2012 18 9955

-------
ENTROPY
-------

The entropy contributions are T*S = T*(S(el)+S(vib)+S(rot)+S(trans))
     S(el)   - electronic entropy
     S(vib)  - vibrational entropy
     S(rot)  - rotational entropy
     S(trans)- translational entropy
The entropies will be listed as mutliplied by the temperature to get
units of energy

Electronic entropy                ...      0.00000000 Eh      0.00 kcal/mol
Vibrational entropy               ...      0.00000353 Eh      0.00 kcal/mol
Rotational entropy                ...      0.00502438 Eh      3.15 kcal/mol
Translational entropy             ...      0.01644380 Eh     10.32 kcal/mol
-----------------------------------------------------------------------
Final entropy term                ...      0.02147172 Eh     13.47 kcal/mol

-------------------
GIBBS FREE ENTHALPY
-------------------

The Gibbs free enthalpy is G = H - T*S

Total enthalpy                    ...    -76.33633140 Eh
Total entropy correction          ...     -0.02147172 Eh    -13.47 kcal/mol
-----------------------------------------------------------------------
Final Gibbs free enthalpy         ...    -76.35780312 Eh

For completeness - the Gibbs free enthalpy minus the electronic energy
G-E(el)                           ...      0.00296829 Eh      1.86 kcal/mol

                             ****ORCA TERMINATED NORMALLY****
TOTAL RUN TIME: 0 days 0 hours 1 minutes 32 seconds 217 msec
