   * xtb version 6.4.0 (d4b70c2) compiled by 'ehlert@majestix' on 2021-02-01
          program call               : xtb h2o.xyz --ohess
          number of atoms            :                     3
          number of electrons        :                     8
          charge                     :                     0
          spin                       :                   0.0

   ID    Z sym.   atoms
    1    8 O      1
    2    1 H      2, 3

          :  Hamiltonian                  GFN2-xTB          :
 * total energy  :    -5.0704514 Eh     change       -0.2149392E-12 Eh
 * total energy  :    -5.0705146 Eh     change       -0.6321668E-04 Eh
 * total energy  :    -5.0705444 Eh     change       -0.2981289E-04 Eh
 * total energy  :    -5.0705444 Eh     change       -0.5914620E-07 Eh
   *** GEOMETRY OPTIMIZATION CONVERGED AFTER 4 ITERATIONS ***

 final structure:
================
3
 xtb: 6.4.0 (d4b70c2)
O        -0.00000000009770    0.00000000000000   -0.37930110495941
H         0.77220785960754    0.00000000000000    0.18965060251710
H        -0.77220785950984   -0.00000000000000    0.18965060244231

          :  Hamiltonian                  GFN2-xTB          :
         :: gradient norm              0.000074997753 Eh/a0 ::
         :: HOMO-LUMO gap             14.390898501060 eV    ::
         :: SCC energy                -5.104925504909 Eh    ::
         :: -> dispersion             -0.000141082856 Eh    ::
         :: repulsion energy           0.034381061419 Eh    ::

    * Orbital Energies and Occupations

         #    Occupation            Energy/Eh            Energy/eV
      -------------------------------------------------------------
         1        2.0000           -0.6800842             -18.5060
         2        2.0000           -0.5683168             -15.4647
         3        2.0000           -0.5108568             -13.9011
         4        2.0000           -0.4463839             -12.1467 (HOMO)
         5                          0.0824719               2.2442 (LUMO)
         6                          0.2516070               6.8466
      -------------------------------------------------------------
                  HL-Gap            0.5288558 Eh           14.3909 eV

     #   Z          covCN         q      C6AA      α(0)
     1   8 O        1.611    -0.565    24.358     6.661
     2   1 H        0.805     0.282     0.776     1.384
     3   1 H        0.805     0.282     0.776     1.384

Wiberg/Mayer (AO) data.
largest (>0.10) Wiberg bond orders for each atom

     #   Z sym  total        # sym  WBO       # sym  WBO       # sym  WBO
 ---------------------------------------------------------------------------
     1   8 O    1.840 --     3 H    0.920     2 H    0.920
     2   1 H    0.920 --     1 O    0.920
     3   1 H    0.920 --     1 O    0.920
 ---------------------------------------------------------------------------

molecular dipole:
                 x           y           z       tot (Debye)
 q only:        0.000       0.000       0.607
   full:        0.000       0.000       0.872       2.217

 projected vibrational frequencies (cm⁻¹)
eigval :       -0.00    -0.00    -0.00     0.00     0.00     0.00
eigval :     1539.40  3644.29  3652.67

   temp. (K)  partition function   enthalpy   heat capacity  entropy
                                   cal/mol     cal/K/mol   cal/K/mol   J/K/mol
 298.15  VIB   1.00                    2.616      0.065      0.010
         ROT   42.6                  888.752      2.981     10.435
         INT   42.6                  891.369      3.046     10.445
         TR   0.740E+26             1481.254      4.968     34.593
         TOT                        2372.6227     8.0143    45.0379   188.4387

       T/K    H(0)-H(T)+PV         H(T)/Eh          T*S/Eh         G(T)/Eh
   ------------------------------------------------------------------------
    298.15    0.378101E-02    0.239117E-01    0.213990E-01    0.251276E-02
   ------------------------------------------------------------------------

         :::::::::::::::::::::::::::::::::::::::::::::::::::::
         ::                  THERMODYNAMIC                  ::
         :::::::::::::::::::::::::::::::::::::::::::::::::::::
         :: total free energy          -5.068031686010 Eh   ::
         ::.................................................::
         :: total energy               -5.070544443464 Eh   ::
         :: zero point energy           0.020130711667 Eh   ::
         :: G(RRHO) w/o ZPVE           -0.017617954212 Eh   ::
         :: G(RRHO) contrib.            0.002512757454 Eh   ::
         :::::::::::::::::::::::::::::::::::::::::::::::::::::

           -------------------------------------------------
          | TOTAL ENERGY               -5.070544443464 Eh   |
          | TOTAL ENTHALPY             -5.046632716810 Eh   |
          | TOTAL FREE ENERGY          -5.068031686010 Eh   |
          | GRADIENT NORM               0.000074997772 Eh/α |
          | HOMO-LUMO GAP              14.390898498654 eV   |
           -------------------------------------------------

 * finished run on 2021/05/02 at 11:47:02.590
