                         Program Version 4.1.1  - RELEASE  -
|  1> ! BP def2-SVP RI def2/J  TightSCF Grid5 NoFinalGrid
|  2> ! Opt
|  3> ! NumFreq
|  4>
|  5> %freq CentralDiff true
|  6>       Increment 0.005
|  7>       end
|  8>
|  9>
| 10> %pal
| 11> nprocs 36    # parallel execution
| 12> end
| 13>
| 14> % maxcore 3000
| 15>
| 16> * xyz 0 1
| 17>  6                -0.000000   -0.000000    0.000000
| 18>  8                 0.000004    0.000002    1.143617
| 19>  8                -0.000004   -0.000002   -1.143617
| 20> *
| 21>
| 22>
| 23>                          ****END OF INPUT****
 Total Charge           Charge          ....    0
 Multiplicity           Mult            ....    1
 Number of Electrons    NEL             ....   22
FINAL SINGLE POINT ENERGY      -188.453206032809
FINAL SINGLE POINT ENERGY      -188.457165725526
FINAL SINGLE POINT ENERGY      -188.457237066284
FINAL SINGLE POINT ENERGY      -188.457237819511
                    ***********************HURRAY********************

CARTESIAN COORDINATES (ANGSTROEM)
---------------------------------
  C     -0.000000    0.000000   -0.000000
  O      0.000004    0.000002    1.174865
  O     -0.000004   -0.000002   -1.174865

 Multiplicity           Mult            ....    1
 Number of Electrons    NEL             ....   22
 Basis Dimension        Dim             ....   42

ORBITAL ENERGIES
----------------

  NO   OCC          E(Eh)            E(eV)
   0   2.0000     -18.859423      -513.1910
   1   2.0000     -18.859357      -513.1892
   2   2.0000     -10.090945      -274.5886
   3   2.0000      -1.052474       -28.6393
   4   2.0000      -1.016347       -27.6562
   5   2.0000      -0.493732       -13.4351
   6   2.0000      -0.460583       -12.5331
   7   2.0000      -0.460583       -12.5331
   8   2.0000      -0.456210       -12.4141
   9   2.0000      -0.327155        -8.9023
  10   2.0000      -0.327155        -8.9023
  11   0.0000      -0.012797        -0.3482
  12   0.0000      -0.012797        -0.3482
  13   0.0000       0.026744         0.7278
  14   0.0000       0.323710         8.8086
  15   0.0000       0.392960        10.6930

MULLIKEN ATOMIC CHARGES
-----------------------
   0 C :    0.226710
   1 O :   -0.113355
   2 O :   -0.113355
Sum of atomic charges:   -0.0000000

LOEWDIN ATOMIC CHARGES
----------------------
   0 C :    0.105162
   1 O :   -0.052581
   2 O :   -0.052581

  Mayer bond orders larger than 0.1
B(  0-C ,  1-O ) :   2.1641 B(  0-C ,  2-O ) :   2.1641 B(  1-O ,  2-O ) :   0.2994

FINAL SINGLE POINT ENERGY      -188.457237820027

DIPOLE MOMENT
-------------
                                X             Y             Z
Electronic contribution:     -0.00000       0.00000      -0.00000
Nuclear contribution   :      0.00000      -0.00000       0.00000
                        -----------------------------------------
Total Dipole Moment    :     -0.00000       0.00000      -0.00000
                        -----------------------------------------
Magnitude (a.u.)       :      0.00000
Magnitude (Debye)      :      0.00000

VIBRATIONAL FREQUENCIES
-----------------------

Scaling factor for frequencies =  1.000000000 (already applied!)

   0:         0.00 cm**-1
   1:         0.00 cm**-1
   2:         0.00 cm**-1
   3:         0.00 cm**-1
   4:         0.00 cm**-1
   5:         0.00 cm**-1
   6:       621.37 cm**-1
   7:      1332.24 cm**-1
   8:      2407.24 cm**-1

IR SPECTRUM
-----------

 Mode    freq (cm**-1)   T**2         TX         TY         TZ
-------------------------------------------------------------------
   6:       621.37   24.902837  (  4.767732  -1.473623  -0.000462)
   7:      1332.24    0.000000  ( -0.000000   0.000000   0.000001)
   8:      2407.24  494.255136  (  0.000070   0.000039  22.231850)

--------------------------
THERMOCHEMISTRY AT 298.15K
--------------------------

Temperature         ... 298.15 K
Pressure            ... 1.00 atm
Total Mass          ... 44.01 AMU
The molecule is recognized as being linear

Throughout the following assumptions are being made:
  (1) The electronic state is orbitally nondegenerate
  (2) There are no thermally accessible electronically excited states
  (3) Hindered rotations indicated by low frequency modes are not
      treated as such but are treated as vibrations and this may
      cause some error
  (4) All equations used are the standard statistical mechanics
      equations for an ideal gas
  (5) All vibrations are strictly harmonic

freq.     621.37  E(vib)   ...       0.09
freq.    1332.24  E(vib)   ...       0.01
freq.    2407.24  E(vib)   ...       0.00

------------
INNER ENERGY
------------

The inner energy is: U= E(el) + E(ZPE) + E(vib) + E(rot) + E(trans)
    E(el)   - is the total energy from the electronic structure calculation
              = E(kin-el) + E(nuc-el) + E(el-el) + E(nuc-nuc)
    E(ZPE)  - the the zero temperature vibrational energy from the frequency calculation
    E(vib)  - the the finite temperature correction to E(ZPE) due to population
              of excited vibrational states
    E(rot)  - is the rotational thermal energy
    E(trans)- is the translational thermal energy

Summary of contributions to the inner energy U:
Electronic energy                ...   -188.45723782 Eh
Zero point energy                ...      0.00993476 Eh       6.23 kcal/mol
Thermal vibrational correction   ...      0.00015849 Eh       0.10 kcal/mol
Thermal rotational correction    ...      0.00094418 Eh       0.59 kcal/mol
Thermal translational correction ...      0.00141627 Eh       0.89 kcal/mol
-----------------------------------------------------------------------
Total thermal energy                   -188.44478411 Eh

Summary of corrections to the electronic energy:
(perhaps to be used in another calculation)
Total thermal correction                  0.00251895 Eh       1.58 kcal/mol
Non-thermal (ZPE) correction              0.00993476 Eh       6.23 kcal/mol
-----------------------------------------------------------------------
Total correction                          0.01245371 Eh       7.81 kcal/mol

--------
ENTHALPY
--------

The enthalpy is H = U + kB*T
                kB is Boltzmann's constant
Total free energy                 ...   -188.44478411 Eh
Thermal Enthalpy correction       ...      0.00094421 Eh       0.59 kcal/mol
-----------------------------------------------------------------------
Total Enthalpy                    ...   -188.44383990 Eh

Note: Rotational entropy computed according to Herzberg
Infrared and Raman Spectra, Chapter V,1, Van Nostrand Reinhold, 1945
Point Group:  Dinfh, Symmetry Number:   2
Rotational constants in cm-1:     0.000000     0.381679     0.381679

Vibrational entropy computed according to the QRRHO of S. Grimme
Chem.Eur.J. 2012 18 9955

-------
ENTROPY
-------

The entropy contributions are T*S = T*(S(el)+S(vib)+S(rot)+S(trans))
     S(el)   - electronic entropy
     S(vib)  - vibrational entropy
     S(rot)  - rotational entropy
     S(trans)- translational entropy
The entropies will be listed as mutliplied by the temperature to get
units of energy

Electronic entropy                ...      0.00000000 Eh      0.00 kcal/mol
Vibrational entropy               ...      0.00020852 Eh      0.13 kcal/mol
Rotational entropy                ...      0.00623522 Eh      3.91 kcal/mol
Translational entropy             ...      0.01770880 Eh     11.11 kcal/mol
-----------------------------------------------------------------------
Final entropy term                ...      0.02415254 Eh     15.16 kcal/mol

-------------------
GIBBS FREE ENTHALPY
-------------------

The Gibbs free enthalpy is G = H - T*S

Total enthalpy                    ...   -188.44383990 Eh
Total entropy correction          ...     -0.02415254 Eh    -15.16 kcal/mol
-----------------------------------------------------------------------
Final Gibbs free enthalpy         ...   -188.46799244 Eh

For completeness - the Gibbs free enthalpy minus the electronic energy
G-E(el)                           ...     -0.01075462 Eh     -6.75 kcal/mol

                             ****ORCA TERMINATED NORMALLY****
TOTAL RUN TIME: 0 days 0 hours 1 minutes 36 seconds 595 msec
