 Gaussian 16, Revision B.01,
 Gaussian 16:  ES64L-G16RevB.01 20-Dec-2017

 ----------------------------------------------------------------------
 #P TPSSTPSS 6-31G(d,p) opt=tight freq scf=tight int(ultrafine) geom=co
 nnectivity
 ----------------------------------------------------------------------

 -------------------
 Title Card Required
 -------------------
 Symbolic Z-matrix:
 Charge =  0 Multiplicity = 1

 SCF Done:  E(RTPSS-TPSS) =  -78.6027125825     A.U. after    9 cycles
 SCF Done:  E(RTPSS-TPSS) =  -78.6043362182     A.U. after    9 cycles
 SCF Done:  E(RTPSS-TPSS) =  -78.6044493486     A.U. after    7 cycles
 SCF Done:  E(RTPSS-TPSS) =  -78.6044521830     A.U. after    6 cycles
 SCF Done:  E(RTPSS-TPSS) =  -78.6044522238     A.U. after    5 cycles
 Optimization completed.
    -- Stationary point found.
 Normal termination of Gaussian 16 at Sat Feb  9 14:30:43 2019.

 ----------------------------------------------------------------------
 #P Geom=AllCheck Guess=TCheck SCRF=Check GenChk RTPSSTPSS/6-31G(d,p) F
 req
 ----------------------------------------------------------------------

 Structure from the checkpoint file:  "ethene.chk"
 -------------------
 Title Card Required
 -------------------
 Charge =  0 Multiplicity = 1

                         Standard orientation:
 ---------------------------------------------------------------------
 Center     Atomic      Atomic             Coordinates (Angstroms)
 Number     Number       Type             X           Y           Z
 ---------------------------------------------------------------------
      1          6           0        0.000000    0.668166    0.000000
      2          1           0        0.925392    1.242377    0.000000
      3          1           0       -0.925386    1.242382    0.000000
      4          6           0       -0.000000   -0.668166    0.000000
      5          1           0       -0.925392   -1.242377    0.000000
      6          1           0        0.925386   -1.242382    0.000000
 ---------------------------------------------------------------------

 SCF Done:  E(RTPSS-TPSS) =  -78.6044522238     A.U. after    1 cycles

 The electronic state is 1-AG.
 Alpha  occ. eigenvalues --   -9.99626  -9.99562  -0.69545  -0.52975  -0.41942
 Alpha  occ. eigenvalues --   -0.36934  -0.31435  -0.23360
 Alpha virt. eigenvalues --   -0.00948   0.11014   0.12473   0.14303   0.23219
 Alpha virt. eigenvalues --    0.31269   0.45986   0.53077   0.55087   0.61647
 Alpha virt. eigenvalues --    0.63984   0.67255   0.81594   0.82519   0.90143

 Mulliken charges:
               1
     1  C   -0.233824
     2  H    0.116912
     3  H    0.116912
     4  C   -0.233824
     5  H    0.116912
     6  H    0.116912
 Sum of Mulliken charges =  -0.00000

 Dipole moment (field-independent basis, Debye):
    X=             -0.0000    Y=              0.0000    Z=             -0.0000  Tot=              0.0000
 Quadrupole moment (field-independent basis, Debye-Ang):
   XX=            -12.0967   YY=            -11.9487   ZZ=            -14.9643
   XY=             -0.0000   XZ=              0.0000   YZ=              0.0000

  Exact polarizability:  21.062   0.000  31.314  -0.000   0.000   8.976
 Approx polarizability:  28.657   0.000  57.318   0.000  -0.000  12.675

                      1                      2                      3
                     BU                     BG                     AU
 Frequencies --    816.4553               933.8764               968.0328
 Red. masses --      1.0428                 1.5190                 1.1607
 Frc consts  --      0.4095                 0.7805                 0.6409
 IR Inten    --      0.6149                 0.0000                82.4874

                      4                      5                      6
                     AU                     AG                     AG
 Frequencies --   1062.9524              1235.3456              1381.2168
 Red. masses --      1.0078                 1.5258                 1.2566
 Frc consts  --      0.6709                 1.3719                 1.4125
 IR Inten    --      0.0000                 0.0000                 0.0000

                      7                      8                      9
                     BU                     AG                     BU
 Frequencies --   1480.0220              1690.1402              3115.7322
 Red. masses --      1.1124                 2.9350                 1.0474
 Frc consts  --      1.4356                 4.9397                 5.9906
 IR Inten    --      3.7082                 0.0000                24.2033

                     10                     11                     12
                     AG                     AG                     BU
 Frequencies --   3132.5401              3190.0774              3217.3938
 Red. masses --      1.0738                 1.1138                 1.1176
 Frc consts  --      6.2080                 6.6784                 6.8162
 IR Inten    --      0.0000                 0.0000                39.8844

 - Thermochemistry -
 -------------------
 Temperature   298.150 Kelvin.  Pressure   1.00000 Atm.
 Atom     1 has atomic number  6 and mass  12.00000

 Molecular mass:    28.03130 amu.
 Principal axes and moments of inertia in atomic units:
                           1         2         3
     Eigenvalues --    12.32797  60.48321  72.81117
           X            0.00000   1.00000   0.00000
           Y            1.00000  -0.00000   0.00000
           Z            0.00000   0.00000   1.00000
 This molecule is an asymmetric top.
 Rotational symmetry number  2.
 Rotational temperatures (Kelvin)      7.02581     1.43203     1.18957
 Rotational constants (GHZ):         146.39408    29.83872    24.78660
 Zero-point vibrational energy     132927.7 (Joules/Mol)
                                   31.77049 (Kcal/Mol)
 Vibrational temperatures:   1174.70  1343.64  1392.78  1529.35  1777.39
          (Kelvin)           1987.26  2129.42  2431.73  4482.84  4507.03
                             4589.81  4629.11

 Zero-point correction=                           0.050630 (Hartree/Particle)
 Thermal correction to Energy=                    0.053684
 Thermal correction to Enthalpy=                  0.054628
 Thermal correction to Gibbs Free Energy=         0.029088
 Sum of electronic and zero-point Energies=            -78.553823
 Sum of electronic and thermal Energies=               -78.550768
 Sum of electronic and thermal Enthalpies=             -78.549824
 Sum of electronic and thermal Free Energies=          -78.575364

                     E (Thermal)             CV                S
                      KCal/Mol        Cal/Mol-Kelvin    Cal/Mol-Kelvin
 Total                   33.687              8.182             53.753
 Electronic               0.000              0.000              0.000
 Translational            0.889              2.981             35.927
 Rotational               0.889              2.981             17.258
 Vibrational             31.910              2.221              0.568

 Optimization completed.
    -- Stationary point found.
 Normal termination of Gaussian 16 at Sat Feb  9 14:30:46 2019.
